 Q-Chem 4.3, Q-Chem, Inc., Pleasanton, CA (2015)
 Q-Chem 4.3.0 for Intel X86 EM64T Linux

User input:
--------------------------------------------------------------
$molecule
0 1
C      1.14486      0.70294      0.01171
N      0.05475      1.47216     -0.00381
C     -1.14561      0.70108     -0.00269
C     -1.14676     -0.70102     -0.01323
H     -2.09663      1.25416      0.00641
H     -2.09721     -1.25143     -0.00324
N      0.00067     -1.47445      0.01550
C      1.14566     -0.70381      0.00357
H      2.09663     -1.25668     -0.01229
H      2.09655      1.25704     -0.00191
$end

$rem
jobtype sp
cis_n_roots 3
cis_singlets true
cis_triplets false
set_iter 50
exchange pbe0
basis sto-3g
RPA 0
MAX_SCF_CYCLES 500
xc_grid 000075000302
mem_static 4000
mem_total 16000
SYM_IGNORE TRUE
$end

--------------------------------------------------------------

   13    -260.6979256889      3.39E-09 Convergence criterion met
 Total energy in the final basis set = -260.6979256889
 Total job time:  11.51s(wall), 25.37s(cpu)
        *  Thank you very much for using Q-Chem.  Have a nice day.  *

User input: 2 of 5

                  Welcome to Q-Chem
     A Quantum Leap Into The Future Of Chemistry

 Q-Chem 4.3, Q-Chem, Inc., Pleasanton, CA (2015)

 Y. Shao,  Z. Gan,  E. Epifanovsky,  A. T. B. Gilbert,  M. Wormit,
 J. Kussmann,  A. W. Lange,  A. Behn,  J. Deng,  X. Feng,  D. Ghosh,
 M. Goldey,  P. R. Horn,  L. D. Jacobson,  I. Kaliman,  R. Z. Khaliullin,
 T. Kus,  A. Landau,  J. Liu,  E. I. Proynov,  Y. M. Rhee,  R. M. Richard,
 M. A. Rohrdanz,  R. P. Steele,  E. J. Sundstrom,  H. L. Woodcock III,
 P. M. Zimmerman,  D. Zuev,  B. Albrecht,  E. Alguire,  B. Austin,
 S. A. Baeppler,  G. J. O. Beran,  Y. A. Bernard,  E. Berquist,
 K. Brandhorst,  K. B. Bravaya,  S. T. Brown,  D. Casanova,  C.-M. Chang,
 Y. Chen,  S. H. Chien,  K. D. Closser,  D. L. Crittenden,  M. Diedenhofen,
 R. A. DiStasio Jr.,  H. Do,  A. D. Dutoi,  R. G. Edgar,  P.-T. Fang,
 S. Fatehi,  Q. Feng,  L. Fusti-Molnar,  A. Ghysels,
 A. Golubeva-Zadorozhnaya,  J. Gomes,  A. Gunina,  M. W. D. Hanson-Heine,
 P. H. P. Harbach,  A. W. Hauser,  E. G. Hohenstein,  Z. C. Holden,  K. Hui,
 T.-C. Jagau,  H. Ji,  B. Kaduk,  K. Khistyaev,  Jaehoon Kim,  Jihan Kim,
 R. A. King,  P. Klunzinger,  D. Kosenkov,  T. Kowalczyk,  C. M. Krauter,
 K. U. Lao,  A. Laurent,  K. V. Lawler,  S. Lehtola,  S. V. Levchenko,
 C. Y. Lin,  Y.-S. Lin,  F. Liu,  E. Livshits,  R. C. Lochan,  A. Luenser,
 P. Manohar,  S. F. Manzer,  S.-P. Mao,  N. Mardirossian,  A. V. Marenich,
 L. A. Martinez-Martinez,  S. A. Maurer,  N. J. Mayhall,  K. Nanda,
 C. M. Oana,  R. Olivares-Amaya,  D. P. O'Neill,  J. A. Parkhill,
 T. M. Perrine,  R. Peverati,  P. A. Pieniazek,  F. Plasser,  A. Prociuk,
 D. R. Rehn,  E. Rosta,  N. J. Russ,  N. Sergueev,  S. M. Sharada,
 S. Sharma,  D. W. Small,  A. Sodt,  T. Stauch,  T. Stein,  D. Stuck,
 Y.-C. Su,  A. J. W. Thom,  T. Tsuchimochi,  L. Vogt,  O. Vydrov,  T. Wang,
 M. A. Watson,  J. Wenzel,  A. White,  C. F. Williams,  V. Vanovschi,
 S. Yeganeh,  S. R. Yost,  Z.-Q. You,  I. Y. Zhang,  X. Zhang,  Y. Zhao,
 B. R. Brooks,  G. K. L. Chan,  D. M. Chipman,  C. J. Cramer,
 W. A. Goddard III,  M. S. Gordon,  W. J. Hehre,  A. Klamt,
 H. F. Schaefer III,  M. W. Schmidt,  C. D. Sherrill,  D. G. Truhlar,
 A. Warshel,  X. Xu,  A. Aspuru-Guzik,  R. Baer,  A. T. Bell,  N. A. Besley,
 J.-D. Chai,  A. Dreuw,  B. D. Dunietz,  T. R. Furlani,  S. R. Gwaltney,
 C.-P. Hsu,  Y. Jung,  J. Kong,  D. S. Lambrecht,  W. Liang,  C. Ochsenfeld,
 V. A. Rassolov,  L. V. Slipchenko,  J. E. Subotnik,  T. Van Voorhis,
 J. M. Herbert,  A. I. Krylov,  P. M. W. Gill,  M. Head-Gordon

 Contributors to earlier versions of Q-Chem not listed above:
 R. D. Adamson,  J. Baker,  E. F. C. Byrd,  A. K. Chakraborty,  C.-L. Cheng,
 H. Dachsel,  R. J. Doerksen,  G. Hawkins,  A. Heyden,  S. Hirata,
 G. Kedziora,  F. J. Keil,  C. Kelley,  P. P. Korambath,  W. Kurlancheek,
 A. M. Lee,  M. S. Lee,  D. Liotard,  I. Lotan,  P. E. Maslen,  N. Nair,
 D. Neuhauser,  R. Olson,  B. Peters,  J. Ritchie,  N. E. Schultz,
 N. Shenvi,  A. C. Simmonett,  K. S. Thanthiriwatte,  Q. Wu,  W. Zhang

 Please cite Q-Chem as follows:
 Y. Shao et al., Mol. Phys. 113, 184-215 (2015)
 DOI: 10.1080/00268976.2014.952696

 Q-Chem 4.3.0 for Intel X86 EM64T Linux

 Parts of Q-Chem use Armadillo 5.200.1 (Boston Tea Smuggler).
 http://arma.sourceforge.net/

 Q-Chem begins on Fri Oct 18 17:53:55 2019

Host: theochem
0

     Scratch files written to /tmp/qchem188224//

Checking the input file for inconsistencies... 	...done.

--------------------------------------------------------------
User input:
--------------------------------------------------------------
$comment
FORCE
$end

$molecule
0 1
read
$end

$rem
jobtype FORCE
set_iter 50
exchange pbe0
basis sto-3g
RPA 0
MAX_SCF_CYCLES 500
xc_grid 000075000302
mem_static 4000
mem_total 16000
SYM_IGNORE TRUE
$end

--------------------------------------------------------------

   13    -260.6979256889      3.39E-09 Convergence criterion met
 Total energy in the final basis set = -260.6979256889
 Total job time:  2.62s(wall), 10.38s(cpu)
        *  Thank you very much for using Q-Chem.  Have a nice day.  *
 Q-Chem 4.3, Q-Chem, Inc., Pleasanton, CA (2015)
 Q-Chem 4.3.0 for Intel X86 EM64T Linux
    2    -260.6979256889      3.12E-10 Convergence criterion met
 Total energy in the final basis set = -260.6979256889

         TDDFT/TDA Excitation Energies
 ---------------------------------------------------

 Excited state   1: excitation energy (eV) =    4.2801
    Total energy for state   1:   -260.540635434327
    Multiplicity: Singlet
    Trans. Mom.:  0.0110 X   0.0092 Y   0.2992 Z
    Strength   :     0.0094061734
    D( 21) --> V(  1) amplitude =  0.9967

 Excited state   2: excitation energy (eV) =    5.0847
    Total energy for state   2:   -260.511067854742
    Multiplicity: Singlet
    Trans. Mom.:  0.0018 X  -0.0135 Y  -0.0822 Z
    Strength   :     0.0008648059
    D( 21) --> V(  2) amplitude =  0.9981

 Excited state   3: excitation energy (eV) =    5.7928
    Total energy for state   3:   -260.485045189779
    Multiplicity: Singlet
    Trans. Mom.:  0.0015 X   0.0059 Y   0.0032 Z
    Strength   :     0.0000066944
    D( 19) --> V(  1) amplitude = -0.9927

 ---------------------------------------------------

                    Orbital Energies (a.u.)
 --------------------------------------------------------------

 Alpha MOs
 -- Occupied --
-14.223 -14.223 -10.107 -10.105 -10.104 -10.102  -0.961  -0.889
 -0.757  -0.646  -0.620  -0.499  -0.470  -0.469  -0.413  -0.380
 -0.347  -0.272  -0.246  -0.239  -0.190

          Ground-State Mulliken Net Atomic Charges

     Atom                 Charge (a.u.)
  ----------------------------------------
      1 C                    -0.004868
      2 N                    -0.195883
      3 C                    -0.008108
      4 C                    -0.010306
      5 H                     0.104972
      6 H                     0.104395
      7 N                    -0.194512
      8 C                    -0.004022
      9 H                     0.104637
     10 H                     0.103694
  ----------------------------------------
  Sum of atomic charges =     0.000000

                    Cartesian Multipole Moments
 -----------------------------------------------------------------
    Charge (ESU x 10^10)
                 0.0000
    Dipole Moment (Debye)
         X      -0.0475      Y      -0.0013      Z      -0.0150
       Tot       0.0498
    Quadrupole Moments (Debye-Ang)
        XX     -25.9525     XY      -0.1208     YY     -38.7352
        XZ      -0.0453     YZ       0.0582     ZZ     -32.4505

 Total job time:  20.88s(wall), 37.21s(cpu)
        *  Thank you very much for using Q-Chem.  Have a nice day.  *
 Q-Chem 4.3, Q-Chem, Inc., Pleasanton, CA (2015)
 Q-Chem 4.3.0 for Intel X86 EM64T Linux

             Standard Nuclear Orientation (Angstroms)
    I     Atom           X                Y                Z
 ----------------------------------------------------------------
    1      C       1.1448600000     0.7029400000     0.0117100000
    2      N       0.0547500000     1.4721600000    -0.0038100000
    3      C      -1.1456100000     0.7010800000    -0.0026900000
    4      C      -1.1467600000    -0.7010200000    -0.0132300000
    5      H      -2.0966300000     1.2541600000     0.0064100000
    6      H      -2.0972100000    -1.2514300000    -0.0032400000
    7      N       0.0006700000    -1.4744500000     0.0155000000
    8      C       1.1456600000    -0.7038100000     0.0035700000
    9      H       2.0966300000    -1.2566800000    -0.0122900000
   10      H       2.0965500000     1.2570400000    -0.0019100000
 ----------------------------------------------------------------

    2    -260.6979256889      1.33E-10 Convergence criterion met
 Total energy in the final basis set = -260.6979256889
