 Q-Chem 4.3, Q-Chem, Inc., Pleasanton, CA (2015)
 Q-Chem 4.3.0 for Intel X86 EM64T Linux

User input:
--------------------------------------------------------------
$molecule
0 1
c      2.14229      1.37344      0.00001
n     -0.00018      2.74722     -0.00000
c     -2.14248      1.37316     -0.00000
c     -2.14231     -1.37343      0.00000
h     -3.99562      2.24151     -0.00000
h     -3.99533     -2.24207      0.00002
n      0.00019     -2.74722     -0.00000
c      2.14249     -1.37316     -0.00000
h      3.99561     -2.24152     -0.00000
h      3.99532      2.24206      0.00000
$end

$rem
jobtype opt
exchange pbe0
basis sto-3g
RPA 0
MAX_SCF_CYCLES 500
xc_grid 000075000302
mem_static 4000
mem_total 16000
SYM_IGNORE TRUE
MOLDEN_FORMAT TRUE
$end

--------------------------------------------------------------

   97    -258.5302311848      7.16E-09 Convergence criterion met
 Total energy in the final basis set = -258.5302311848
   17    -258.5999826539      3.83E-09 Convergence criterion met
 Total energy in the final basis set = -258.5999826539
   16    -258.6735128293      9.10E-09 Convergence criterion met
 Total energy in the final basis set = -258.6735128293
   16    -258.7508492066      6.71E-09 Convergence criterion met
 Total energy in the final basis set = -258.7508492066
   15    -258.8321241978      9.64E-09 Convergence criterion met
 Total energy in the final basis set = -258.8321241978
   15    -258.9174710707      2.80E-09 Convergence criterion met
 Total energy in the final basis set = -258.9174710707
   15    -259.0070044677      4.74E-09 Convergence criterion met
 Total energy in the final basis set = -259.0070044677
   15    -259.1007891805      1.32E-09 Convergence criterion met
 Total energy in the final basis set = -260.6901258774
   13    -260.7005994114      2.85E-09 Convergence criterion met
 Total energy in the final basis set = -260.7005994114
   13    -260.6863319814      3.41E-09 Convergence criterion met
 Total energy in the final basis set = -260.6863319814
   13    -260.7012954708      4.21E-09 Convergence criterion met
 Total energy in the final basis set = -260.7012954708
   13    -260.6931454544      2.81E-09 Convergence criterion met
 Total energy in the final basis set = -260.6931454544
   13    -260.7013813888      6.10E-10 Convergence criterion met
 Total energy in the final basis set = -260.7013813888
   12    -260.6968684127      9.87E-09 Convergence criterion met
 Total energy in the final basis set = -260.6968684127

User input: 2 of 2

                  Welcome to Q-Chem
     A Quantum Leap Into The Future Of Chemistry

 Q-Chem 4.3, Q-Chem, Inc., Pleasanton, CA (2015)

 Y. Shao,  Z. Gan,  E. Epifanovsky,  A. T. B. Gilbert,  M. Wormit,
 J. Kussmann,  A. W. Lange,  A. Behn,  J. Deng,  X. Feng,  D. Ghosh,
 M. Goldey,  P. R. Horn,  L. D. Jacobson,  I. Kaliman,  R. Z. Khaliullin,
 T. Kus,  A. Landau,  J. Liu,  E. I. Proynov,  Y. M. Rhee,  R. M. Richard,
 M. A. Rohrdanz,  R. P. Steele,  E. J. Sundstrom,  H. L. Woodcock III,
 P. M. Zimmerman,  D. Zuev,  B. Albrecht,  E. Alguire,  B. Austin,
 S. A. Baeppler,  G. J. O. Beran,  Y. A. Bernard,  E. Berquist,
 K. Brandhorst,  K. B. Bravaya,  S. T. Brown,  D. Casanova,  C.-M. Chang,
 Y. Chen,  S. H. Chien,  K. D. Closser,  D. L. Crittenden,  M. Diedenhofen,
 R. A. DiStasio Jr.,  H. Do,  A. D. Dutoi,  R. G. Edgar,  P.-T. Fang,
 S. Fatehi,  Q. Feng,  L. Fusti-Molnar,  A. Ghysels,
 A. Golubeva-Zadorozhnaya,  J. Gomes,  A. Gunina,  M. W. D. Hanson-Heine,
 P. H. P. Harbach,  A. W. Hauser,  E. G. Hohenstein,  Z. C. Holden,  K. Hui,
 T.-C. Jagau,  H. Ji,  B. Kaduk,  K. Khistyaev,  Jaehoon Kim,  Jihan Kim,
 R. A. King,  P. Klunzinger,  D. Kosenkov,  T. Kowalczyk,  C. M. Krauter,
 K. U. Lao,  A. Laurent,  K. V. Lawler,  S. Lehtola,  S. V. Levchenko,
 C. Y. Lin,  Y.-S. Lin,  F. Liu,  E. Livshits,  R. C. Lochan,  A. Luenser,
 P. Manohar,  S. F. Manzer,  S.-P. Mao,  N. Mardirossian,  A. V. Marenich,
 L. A. Martinez-Martinez,  S. A. Maurer,  N. J. Mayhall,  K. Nanda,
 C. M. Oana,  R. Olivares-Amaya,  D. P. O'Neill,  J. A. Parkhill,
 T. M. Perrine,  R. Peverati,  P. A. Pieniazek,  F. Plasser,  A. Prociuk,
 D. R. Rehn,  E. Rosta,  N. J. Russ,  N. Sergueev,  S. M. Sharada,
 S. Sharma,  D. W. Small,  A. Sodt,  T. Stauch,  T. Stein,  D. Stuck,
 Y.-C. Su,  A. J. W. Thom,  T. Tsuchimochi,  L. Vogt,  O. Vydrov,  T. Wang,
 M. A. Watson,  J. Wenzel,  A. White,  C. F. Williams,  V. Vanovschi,
 S. Yeganeh,  S. R. Yost,  Z.-Q. You,  I. Y. Zhang,  X. Zhang,  Y. Zhao,
 B. R. Brooks,  G. K. L. Chan,  D. M. Chipman,  C. J. Cramer,
 W. A. Goddard III,  M. S. Gordon,  W. J. Hehre,  A. Klamt,
 H. F. Schaefer III,  M. W. Schmidt,  C. D. Sherrill,  D. G. Truhlar,
 A. Warshel,  X. Xu,  A. Aspuru-Guzik,  R. Baer,  A. T. Bell,  N. A. Besley,
 J.-D. Chai,  A. Dreuw,  B. D. Dunietz,  T. R. Furlani,  S. R. Gwaltney,
 C.-P. Hsu,  Y. Jung,  J. Kong,  D. S. Lambrecht,  W. Liang,  C. Ochsenfeld,
 V. A. Rassolov,  L. V. Slipchenko,  J. E. Subotnik,  T. Van Voorhis,
 J. M. Herbert,  A. I. Krylov,  P. M. W. Gill,  M. Head-Gordon

 Contributors to earlier versions of Q-Chem not listed above:
 R. D. Adamson,  J. Baker,  E. F. C. Byrd,  A. K. Chakraborty,  C.-L. Cheng,
 H. Dachsel,  R. J. Doerksen,  G. Hawkins,  A. Heyden,  S. Hirata,
 G. Kedziora,  F. J. Keil,  C. Kelley,  P. P. Korambath,  W. Kurlancheek,
 A. M. Lee,  M. S. Lee,  D. Liotard,  I. Lotan,  P. E. Maslen,  N. Nair,
 D. Neuhauser,  R. Olson,  B. Peters,  J. Ritchie,  N. E. Schultz,
 N. Shenvi,  A. C. Simmonett,  K. S. Thanthiriwatte,  Q. Wu,  W. Zhang

 Please cite Q-Chem as follows:
 Y. Shao et al., Mol. Phys. 113, 184-215 (2015)
 DOI: 10.1080/00268976.2014.952696

 Q-Chem 4.3.0 for Intel X86 EM64T Linux

 Parts of Q-Chem use Armadillo 5.200.1 (Boston Tea Smuggler).
 http://arma.sourceforge.net/

 Q-Chem begins on Wed Oct 16 16:45:44 2019

Host: theochem
0

     Scratch files written to /tmp/qchem310620//

Checking the input file for inconsistencies... 	...done.

--------------------------------------------------------------
User input:
--------------------------------------------------------------
$molecule
read
$end

$rem
jobtype freq
exchange pbe0
basis sto-3g
RPA 0
MAX_SCF_CYCLES 500
xc_grid 000075000302
mem_static 4000
mem_total 16000
SYM_IGNORE TRUE
MOLDEN_FORMAT TRUE
$end

--------------------------------------------------------------

             Standard Nuclear Orientation (Angstroms)
    I     Atom           X                Y                Z
 ----------------------------------------------------------------
    1      C       1.1448564643     0.7029430222     0.0117131709
    2      N       0.0018318763     1.4721558012    -0.0038118670
    3      C      -1.1456138447     0.7010752935    -0.0026928110
    4      C      -1.1467641457    -0.7010180114    -0.0132258153
    5      H      -2.0966317036     1.2541610504     0.0064138044
    6      H      -2.0972080745    -1.2514252167    -0.0032414152
    7      N       0.0006739797    -1.4744460878     0.0155039111
    8      C       1.1456586084    -0.7038134341     0.0035716747
    9      H       2.0966255578    -1.2566786509    -0.0122898730
   10      H       2.0965512820     1.2570362336    -0.0019107785
 ----------------------------------------------------------------

   12    -260.7012969266      4.13E-09 Convergence criterion met
 Total energy in the final basis set = -260.7012969266

                    Orbital Energies (a.u.)
 --------------------------------------------------------------

 Alpha MOs
 -- Occupied --
-14.223 -14.223 -10.105 -10.104 -10.104 -10.104  -0.960  -0.888
 -0.758  -0.645  -0.621  -0.498  -0.470  -0.470  -0.413  -0.380
 -0.348  -0.270  -0.246  -0.240  -0.190

          Ground-State Mulliken Net Atomic Charges

     Atom                 Charge (a.u.)
  ----------------------------------------
      1 C                    -0.006054
      2 N                    -0.195544
      3 C                    -0.006944
      4 C                    -0.007700
      5 H                     0.104322
      6 H                     0.104603
      7 N                    -0.194619
      8 C                    -0.006583
      9 H                     0.104388
     10 H                     0.104131
  ----------------------------------------
  Sum of atomic charges =    -0.000000

                    Cartesian Multipole Moments
 -----------------------------------------------------------------
    Charge (ESU x 10^10)
                -0.0000
    Dipole Moment (Debye)
         X       0.0047      Y      -0.0003      Z      -0.0161
       Tot       0.0167
    Quadrupole Moments (Debye-Ang)
        XX     -25.9513     XY      -0.0067     YY     -38.7383
        XZ      -0.0445     YZ       0.0569     ZZ     -32.4528

 Frequency:       352.86                 407.44                 628.95
 Force Cnst:      0.1780                 0.7646                 2.0393
 Red. Mass:       2.4266                 7.8173                 8.7499
 IR Intens:        0.002                 12.879                  0.001
 Frequency:       713.75                 785.62                 820.99
 Force Cnst:      2.0588                 1.9427                 0.4445
 Red. Mass:       6.8591                 5.3424                 1.1193
 IR Intens:        0.001                  0.006                 10.852
 Frequency:       966.50                1017.32                1036.12
 Force Cnst:      0.6948                 0.7442                 0.9685
 Red. Mass:       1.2625                 1.2205                 1.5312
 IR Intens:        0.008                  0.005                  0.111
 Frequency:      1047.68                1067.33                1136.08
 Force Cnst:      3.3787                 4.1620                 2.0127
 Red. Mass:       5.2244                 6.2009                 2.6467
 IR Intens:        7.303                  0.028                  3.504
 Frequency:      1185.83                1186.83                1302.26
 Force Cnst:      1.9607                 2.5605                 1.1950
 Red. Mass:       2.3665                 3.0853                 1.1960
 IR Intens:        2.297                  5.614                  0.012
 Frequency:      1402.46                1484.31                1578.12
 Force Cnst:      1.4847                 2.4376                 2.7524
 Red. Mass:       1.2812                 1.8779                 1.8758
 IR Intens:        0.038                 46.481                 26.028
 Frequency:      1619.15                1697.14                3467.93
 Force Cnst:      8.8830                 8.3377                 7.7408
 Red. Mass:       5.7509                 4.9132                 1.0924
 IR Intens:        0.294                  0.043                  5.388
 Frequency:      3479.11                3488.06                3503.64
 Force Cnst:      7.7908                 7.8756                 7.9573
 Red. Mass:       1.0924                 1.0987                 1.1002
 IR Intens:        5.916                  7.391                  4.929

 STANDARD THERMODYNAMIC QUANTITIES AT   298.15 K  AND     1.00 ATM

   This Molecule has  0 Imaginary Frequencies
   Zero point vibrational energy:       50.572 kcal/mol

   Atom    1 Element C  Has Mass   12.00000
   Atom    2 Element N  Has Mass   14.00307
   Atom    3 Element C  Has Mass   12.00000
   Atom    4 Element C  Has Mass   12.00000
   Atom    5 Element H  Has Mass    1.00783
   Atom    6 Element H  Has Mass    1.00783
   Atom    7 Element N  Has Mass   14.00307
   Atom    8 Element C  Has Mass   12.00000
   Atom    9 Element H  Has Mass    1.00783
   Atom   10 Element H  Has Mass    1.00783
   Molecular Mass:    80.037460 amu
   Principal axes and moments of inertia in amu*Bohr^2:
                             1           2           3
    Eigenvalues --      288.32415   324.29857   612.58645
          X               0.00086     0.99999    -0.00486
          Y               1.00000    -0.00085     0.00238
          Z              -0.00238     0.00486     0.99999
   Rotational Symmetry Number is   1
   The Molecule is an Asymmetric Top
   Translational Enthalpy:        0.889 kcal/mol
   Rotational Enthalpy:           0.889 kcal/mol
   Vibrational Enthalpy:         51.403 kcal/mol
   gas constant (RT):             0.592 kcal/mol
   Translational Entropy:        39.054  cal/mol.K
   Rotational Entropy:           25.552  cal/mol.K
   Vibrational Entropy:           3.835  cal/mol.K

   Total Enthalpy:               53.773 kcal/mol
   Total Entropy:                68.441  cal/mol.K

 Total job time:  158.76s(wall), 169.06s(cpu)
        *  Thank you very much for using Q-Chem.  Have a nice day.  *
