 Q-Chem 4.3, Q-Chem, Inc., Pleasanton, CA (2015)
 Q-Chem 4.3.0 for Intel X86 EM64T Linux

User input:
--------------------------------------------------------------
$molecule
0 1
C       1.1448564643     0.7029430222     0.0117131709
N       0.0018318763     1.4721558012    -0.0038118670
C      -1.1456138447     0.7010752935    -0.0026928110
C      -1.1467641457    -0.7010180114    -0.0132258153
H      -2.0966317036     1.2541610504     0.0064138044
H      -2.0972080745    -1.2514252167    -0.0032414152
N       0.0006739797    -1.4744460878     0.0155039111
C       1.1456586084    -0.7038134341     0.0035716747
H       2.0966255578    -1.2566786509    -0.0122898730
H       2.0965512820     1.2570362336    -0.0019107785
$end

$rem
jobtype opt
exchange pbe0
basis cc-pVDZ
RPA 0
MAX_SCF_CYCLES 500
xc_grid 000075000302
mem_static 4000
mem_total 16000
SYM_IGNORE TRUE
MOLDEN_FORMAT TRUE
$end

--------------------------------------------------------------

   13    -264.0194316415      3.05E-09 Convergence criterion met
 Total energy in the final basis set = -264.0194316415
   12    -264.0280557262      9.10E-09 Convergence criterion met
 Total energy in the final basis set = -264.0280557262
   10    -264.0285369748      9.93E-09 Convergence criterion met
 Total energy in the final basis set = -264.0285369748
   10    -264.0285499194      5.25E-09 Convergence criterion met
 Total energy in the final basis set = -264.0285499194
    9    -264.0285515788      3.50E-09 Convergence criterion met
 Total energy in the final basis set = -264.0285515788
    8    -264.0285520723      3.12E-09 Convergence criterion met
 Total energy in the final basis set = -264.0285520723
 Final energy is   -264.028552072337
 **  OPTIMIZATION CONVERGED  **
 Total job time:  47.07s(wall), 187.76s(cpu)
        *  Thank you very much for using Q-Chem.  Have a nice day.  *

User input: 2 of 2

                  Welcome to Q-Chem
     A Quantum Leap Into The Future Of Chemistry

 Q-Chem 4.3, Q-Chem, Inc., Pleasanton, CA (2015)

 Y. Shao,  Z. Gan,  E. Epifanovsky,  A. T. B. Gilbert,  M. Wormit,
 J. Kussmann,  A. W. Lange,  A. Behn,  J. Deng,  X. Feng,  D. Ghosh,
 M. Goldey,  P. R. Horn,  L. D. Jacobson,  I. Kaliman,  R. Z. Khaliullin,
 T. Kus,  A. Landau,  J. Liu,  E. I. Proynov,  Y. M. Rhee,  R. M. Richard,
 M. A. Rohrdanz,  R. P. Steele,  E. J. Sundstrom,  H. L. Woodcock III,
 P. M. Zimmerman,  D. Zuev,  B. Albrecht,  E. Alguire,  B. Austin,
 S. A. Baeppler,  G. J. O. Beran,  Y. A. Bernard,  E. Berquist,
 K. Brandhorst,  K. B. Bravaya,  S. T. Brown,  D. Casanova,  C.-M. Chang,
 Y. Chen,  S. H. Chien,  K. D. Closser,  D. L. Crittenden,  M. Diedenhofen,
 R. A. DiStasio Jr.,  H. Do,  A. D. Dutoi,  R. G. Edgar,  P.-T. Fang,
 S. Fatehi,  Q. Feng,  L. Fusti-Molnar,  A. Ghysels,
 A. Golubeva-Zadorozhnaya,  J. Gomes,  A. Gunina,  M. W. D. Hanson-Heine,
 P. H. P. Harbach,  A. W. Hauser,  E. G. Hohenstein,  Z. C. Holden,  K. Hui,
 T.-C. Jagau,  H. Ji,  B. Kaduk,  K. Khistyaev,  Jaehoon Kim,  Jihan Kim,
 R. A. King,  P. Klunzinger,  D. Kosenkov,  T. Kowalczyk,  C. M. Krauter,
 K. U. Lao,  A. Laurent,  K. V. Lawler,  S. Lehtola,  S. V. Levchenko,
 C. Y. Lin,  Y.-S. Lin,  F. Liu,  E. Livshits,  R. C. Lochan,  A. Luenser,
 P. Manohar,  S. F. Manzer,  S.-P. Mao,  N. Mardirossian,  A. V. Marenich,
 L. A. Martinez-Martinez,  S. A. Maurer,  N. J. Mayhall,  K. Nanda,
 C. M. Oana,  R. Olivares-Amaya,  D. P. O'Neill,  J. A. Parkhill,
 T. M. Perrine,  R. Peverati,  P. A. Pieniazek,  F. Plasser,  A. Prociuk,
 D. R. Rehn,  E. Rosta,  N. J. Russ,  N. Sergueev,  S. M. Sharada,
 S. Sharma,  D. W. Small,  A. Sodt,  T. Stauch,  T. Stein,  D. Stuck,
 Y.-C. Su,  A. J. W. Thom,  T. Tsuchimochi,  L. Vogt,  O. Vydrov,  T. Wang,
 M. A. Watson,  J. Wenzel,  A. White,  C. F. Williams,  V. Vanovschi,
 S. Yeganeh,  S. R. Yost,  Z.-Q. You,  I. Y. Zhang,  X. Zhang,  Y. Zhao,
 B. R. Brooks,  G. K. L. Chan,  D. M. Chipman,  C. J. Cramer,
 W. A. Goddard III,  M. S. Gordon,  W. J. Hehre,  A. Klamt,
 H. F. Schaefer III,  M. W. Schmidt,  C. D. Sherrill,  D. G. Truhlar,
 A. Warshel,  X. Xu,  A. Aspuru-Guzik,  R. Baer,  A. T. Bell,  N. A. Besley,
 J.-D. Chai,  A. Dreuw,  B. D. Dunietz,  T. R. Furlani,  S. R. Gwaltney,
 C.-P. Hsu,  Y. Jung,  J. Kong,  D. S. Lambrecht,  W. Liang,  C. Ochsenfeld,
 V. A. Rassolov,  L. V. Slipchenko,  J. E. Subotnik,  T. Van Voorhis,
 J. M. Herbert,  A. I. Krylov,  P. M. W. Gill,  M. Head-Gordon

 Contributors to earlier versions of Q-Chem not listed above:
 R. D. Adamson,  J. Baker,  E. F. C. Byrd,  A. K. Chakraborty,  C.-L. Cheng,
 H. Dachsel,  R. J. Doerksen,  G. Hawkins,  A. Heyden,  S. Hirata,
 G. Kedziora,  F. J. Keil,  C. Kelley,  P. P. Korambath,  W. Kurlancheek,
 A. M. Lee,  M. S. Lee,  D. Liotard,  I. Lotan,  P. E. Maslen,  N. Nair,
 D. Neuhauser,  R. Olson,  B. Peters,  J. Ritchie,  N. E. Schultz,
 N. Shenvi,  A. C. Simmonett,  K. S. Thanthiriwatte,  Q. Wu,  W. Zhang

 Please cite Q-Chem as follows:
 Y. Shao et al., Mol. Phys. 113, 184-215 (2015)
 DOI: 10.1080/00268976.2014.952696

 Q-Chem 4.3.0 for Intel X86 EM64T Linux

 Parts of Q-Chem use Armadillo 5.200.1 (Boston Tea Smuggler).
 http://arma.sourceforge.net/

 Q-Chem begins on Tue Oct 22 17:22:07 2019

Host: theochem
0

     Scratch files written to /tmp/qchem215605//

Checking the input file for inconsistencies... 	...done.

--------------------------------------------------------------
User input:
--------------------------------------------------------------
$molecule
read
$end

$rem
jobtype freq
exchange pbe0
basis cc-pVDZ
RPA 0
MAX_SCF_CYCLES 500
xc_grid 000075000302
mem_static 4000
mem_total 16000
SYM_IGNORE TRUE
MOLDEN_FORMAT TRUE
$end

--------------------------------------------------------------

             Standard Nuclear Orientation (Angstroms)
    I     Atom           X                Y                Z
 ----------------------------------------------------------------
    1      C       1.1278406921     0.6970792226     0.0004923893
    2      N       0.0003656407     1.4093563627     0.0012266221
    3      C      -1.1275640361     0.6975637604     0.0006459994
    4      C      -1.1279018459    -0.6970177831    -0.0004447158
    5      H      -2.0681311713     1.2575930754     0.0011103403
    6      H      -2.0687390968    -1.2565939494    -0.0009902645
    7      N      -0.0003196697    -1.4093566776    -0.0012902426
    8      C       1.1275006932    -0.6976257087    -0.0006374585
    9      H       2.0681566240    -1.2575247135    -0.0011064590
   10      H       2.0687721697     1.2565164113     0.0010237904
 ----------------------------------------------------------------

   11    -264.0285520805      5.14E-09 Convergence criterion met
 Total energy in the final basis set = -264.0285520805

                    Orbital Energies (a.u.)
 --------------------------------------------------------------

 Alpha MOs
 -- Occupied --
-14.415 -14.415 -10.284 -10.284 -10.283 -10.283  -1.017  -0.942
 -0.805  -0.684  -0.680  -0.546  -0.536  -0.503  -0.451  -0.446
 -0.401  -0.347  -0.329  -0.291  -0.263

          Ground-State Mulliken Net Atomic Charges

     Atom                 Charge (a.u.)
  ----------------------------------------
      1 C                     0.061414
      2 N                    -0.189901
      3 C                     0.061420
      4 C                     0.061419
      5 H                     0.033534
      6 H                     0.033534
      7 N                    -0.189901
      8 C                     0.061413
      9 H                     0.033534
     10 H                     0.033534
  ----------------------------------------
  Sum of atomic charges =     0.000000

                    Cartesian Multipole Moments
 -----------------------------------------------------------------
    Charge (ESU x 10^10)
                 0.0000
    Dipole Moment (Debye)
         X       0.0002      Y      -0.0000      Z       0.0001
       Tot       0.0002
    Quadrupole Moments (Debye-Ang)
        XX     -26.9131     XY      -0.0032     YY     -39.9316
        XZ      -0.0000     YZ      -0.0041     ZZ     -35.4748

 Frequency:       348.38                 428.57                 603.24
 Force Cnst:      0.1605                 0.7782                 1.8346
 Red. Mass:       2.2439                 7.1915                 8.5568
 IR Intens:        0.000                 19.505                  0.000
 Frequency:       718.60                 782.90                 805.24
 Force Cnst:      2.1141                 1.3892                 0.4327
 Red. Mass:       6.9486                 3.8467                 1.1325
 IR Intens:        0.000                  0.000                 25.610
 Frequency:       947.86                 992.95                1006.51
 Force Cnst:      0.6684                 0.7812                 0.9475
 Red. Mass:       1.2626                 1.3448                 1.5875
 IR Intens:        0.000                  0.000                  0.000
 Frequency:      1035.82                1061.54                1099.44
 Force Cnst:      3.7875                 3.2630                 1.1820
 Red. Mass:       5.9916                 4.9147                 1.6596
 IR Intens:       37.148                  0.000                  7.482
 Frequency:      1174.27                1252.89                1284.14
 Force Cnst:      1.4109                 1.1279                11.7832
 Red. Mass:       1.7367                 1.2195                12.1279
 IR Intens:        7.989                  0.000                  2.824
 Frequency:      1357.15                1445.77                1521.85
 Force Cnst:      1.2886                 2.4632                 3.1190
 Red. Mass:       1.1874                 2.0001                 2.2857
 IR Intens:        0.000                 36.534                  0.954
 Frequency:      1623.83                1661.40                3179.14
 Force Cnst:     14.8734                 9.3333                 6.4623
 Red. Mass:       9.5737                 5.7390                 1.0852
 IR Intens:        0.000                  0.000                  0.098
 Frequency:      3179.52                3195.90                3201.78
 Force Cnst:      6.4921                 6.5939                 6.6522
 Red. Mass:       1.0900                 1.0957                 1.1014
 IR Intens:        4.963                 57.919                  0.005

 STANDARD THERMODYNAMIC QUANTITIES AT   298.15 K  AND     1.00 ATM

   This Molecule has  0 Imaginary Frequencies
   Zero point vibrational energy:       48.475 kcal/mol

   Atom    1 Element C  Has Mass   12.00000
   Atom    2 Element N  Has Mass   14.00307
   Atom    3 Element C  Has Mass   12.00000
   Atom    4 Element C  Has Mass   12.00000
   Atom    5 Element H  Has Mass    1.00783
   Atom    6 Element H  Has Mass    1.00783
   Atom    7 Element N  Has Mass   14.00307
   Atom    8 Element C  Has Mass   12.00000
   Atom    9 Element H  Has Mass    1.00783
   Atom   10 Element H  Has Mass    1.00783
   Molecular Mass:    80.037460 amu
   Principal axes and moments of inertia in amu*Bohr^2:
                             1           2           3
    Eigenvalues --      279.57899   304.75069   584.32968
          X               0.00025     1.00000     0.00007
          Y               1.00000    -0.00025    -0.00086
          Z               0.00086    -0.00007     1.00000
   Rotational Symmetry Number is   1
   The Molecule is an Asymmetric Top
   Translational Enthalpy:        0.889 kcal/mol
   Rotational Enthalpy:           0.889 kcal/mol
   Vibrational Enthalpy:         49.318 kcal/mol
   gas constant (RT):             0.592 kcal/mol
   Translational Entropy:        39.054  cal/mol.K
   Rotational Entropy:           25.413  cal/mol.K
   Vibrational Entropy:           3.878  cal/mol.K

   Total Enthalpy:               51.688 kcal/mol
   Total Entropy:                68.344  cal/mol.K

 Total job time:  645.97s(wall), 669.89s(cpu)
        *  Thank you very much for using Q-Chem.  Have a nice day.  *
