 Q-Chem 4.3, Q-Chem, Inc., Pleasanton, CA (2015)
 Q-Chem 4.3.0 for Intel X86 EM64T Linux

User input:
--------------------------------------------------------------
$molecule
0 1
c      2.14229      1.37344      0.00001
n     -0.00018      2.74722     -0.00000
c     -2.14248      1.37316     -0.00000
c     -2.14231     -1.37343      0.00000
h     -3.99562      2.24151     -0.00000
h     -3.99533     -2.24207      0.00002
n      0.00019     -2.74722     -0.00000
c      2.14249     -1.37316     -0.00000
h      3.99561     -2.24152     -0.00000
h      3.99532      2.24206      0.00000
$end

$rem
jobtype freq
exchange pbe0
basis sto-3g
RPA 0
MAX_SCF_CYCLES 500
xc_grid 000075000302
mem_static 4000
mem_total 16000
SYM_IGNORE TRUE
MOLDEN_FORMAT TRUE
$end

--------------------------------------------------------------

             Standard Nuclear Orientation (Angstroms)
    I     Atom           X                Y                Z
 ----------------------------------------------------------------
    1      C       2.1422900000     1.3734400000     0.0000100000
    2      N      -0.0001800000     2.7472200000     0.0000000000
    3      C      -2.1424800000     1.3731600000     0.0000000000
    4      C      -2.1423100000    -1.3734300000     0.0000000000
    5      H      -3.9956200000     2.2415100000     0.0000000000
    6      H      -3.9953300000    -2.2420700000     0.0000200000
    7      N       0.0001900000    -2.7472200000     0.0000000000
    8      C       2.1424900000    -1.3731600000     0.0000000000
    9      H       3.9956100000    -2.2415200000     0.0000000000
   10      H       3.9953200000     2.2420600000     0.0000000000
 ----------------------------------------------------------------

  153    -258.5080759959      7.84E-09 Convergence criterion met
 Total energy in the final basis set = -258.5080759959

                    Orbital Energies (a.u.)
 --------------------------------------------------------------

 Alpha MOs
 -- Occupied --
-14.150 -14.113 -10.071 -10.071 -10.034 -10.034  -0.647  -0.618
 -0.516  -0.510  -0.479  -0.471  -0.194  -0.193  -0.178  -0.172
 -0.169  -0.145  -0.113  -0.106  -0.103

          Ground-State Mulliken Net Atomic Charges

     Atom                 Charge (a.u.)
  ----------------------------------------
      1 C                     0.083126
      2 N                    -0.087148
      3 C                     0.083124
      4 C                     0.150222
      5 H                    -0.081932
      6 H                    -0.084303
      7 N                    -0.047077
      8 C                     0.150222
      9 H                    -0.084301
     10 H                    -0.081934
  ----------------------------------------
  Sum of atomic charges =    -0.000000

                    Cartesian Multipole Moments
 -----------------------------------------------------------------
    Charge (ESU x 10^10)
                -0.0000
    Dipole Moment (Debye)
         X       0.0001      Y      -1.3326      Z      -0.0000
       Tot       1.3326
    Quadrupole Moments (Debye-Ang)
        XX     -40.4788     XY      -0.0003     YY     -40.5403
        XZ       0.0000     YZ       0.0000     ZZ     -28.6217

 Frequency:     -1033.22               -1018.02               -1011.25
 Force Cnst:      0.7460                 0.6772                 0.6615
 Red. Mass:       1.1861                 1.1091                 1.0980
 IR Intens:      408.235                 50.351                 87.207
 Frequency:     -1007.96                -829.05                -532.69
 Force Cnst:      0.6551                 1.8152                 1.3008
 Red. Mass:       1.0944                 4.4825                 7.7803
 IR Intens:      127.318                 11.590                  0.189
 Frequency:      -424.70                -261.24                -245.98
 Force Cnst:      0.5817                 0.2417                 0.2735
 Red. Mass:       5.4734                 6.0103                 7.6728
 IR Intens:       24.356                 19.405                  0.000
 Frequency:      -123.45                -102.92                  95.24
 Force Cnst:      0.0570                 0.0389                 0.0643
 Red. Mass:       6.3527                 6.2339                12.0230
 IR Intens:        0.019                  6.223                  0.295
 Frequency:       190.42                 206.21                 271.52
 Force Cnst:      0.1549                 0.2584                 0.4309
 Red. Mass:       7.2496                10.3120                 9.9211
 IR Intens:        0.234                  1.716                  0.320
 Frequency:       309.76                 557.15                 693.87
 Force Cnst:      0.5272                 0.2048                 0.3040
 Red. Mass:       9.3249                 1.1199                 1.0716
 IR Intens:        2.077                  0.000                  0.743
 Frequency:       784.91                 801.74                 871.98
 Force Cnst:      0.3949                 0.4514                 0.5209
 Red. Mass:       1.0879                 1.1918                 1.1627
 IR Intens:        2.907                  0.000                  2.556
 Frequency:       876.19                 883.46                 898.57
 Force Cnst:      0.5055                 0.5389                 0.5309
 Red. Mass:       1.1175                 1.1719                 1.1159
 IR Intens:        5.100                  1.199                 27.547

 STANDARD THERMODYNAMIC QUANTITIES AT   298.15 K  AND     1.00 ATM

   This Molecule has 11 Imaginary Frequencies
   Zero point vibrational energy:       10.637 kcal/mol

   Atom    1 Element C  Has Mass   12.00000
   Atom    2 Element N  Has Mass   14.00307
   Atom    3 Element C  Has Mass   12.00000
   Atom    4 Element C  Has Mass   12.00000
   Atom    5 Element H  Has Mass    1.00783
   Atom    6 Element H  Has Mass    1.00783
   Atom    7 Element N  Has Mass   14.00307
   Atom    8 Element C  Has Mass   12.00000
   Atom    9 Element H  Has Mass    1.00783
   Atom   10 Element H  Has Mass    1.00783
   Molecular Mass:    80.037460 amu
   Principal axes and moments of inertia in amu*Bohr^2:
                             1           2           3
    Eigenvalues --     1016.56681  1150.43189  2166.99869
          X              -0.00008     1.00000    -0.00000
          Y               1.00000     0.00008    -0.00000
          Z               0.00000     0.00000     1.00000
   Rotational Symmetry Number is   1
   The Molecule is an Asymmetric Top
   Translational Enthalpy:        0.889 kcal/mol
   Rotational Enthalpy:           0.889 kcal/mol
   Vibrational Enthalpy:         12.788 kcal/mol
   gas constant (RT):             0.592 kcal/mol
   Translational Entropy:        39.054  cal/mol.K
   Rotational Entropy:           29.317  cal/mol.K
   Vibrational Entropy:          12.668  cal/mol.K

   Total Enthalpy:               15.158 kcal/mol
   Total Entropy:                81.040  cal/mol.K

 Total job time:  152.91s(wall), 217.04s(cpu)
        *  Thank you very much for using Q-Chem.  Have a nice day.  *
